<?xml version="1.0" encoding="UTF-8"?>

<!-- generated on 2022-09-27 10:25:38 by Eclipse SUMO GUI Version 1.14.1
<configuration xmlns:xsi="http://www.w3.org/2001/XMLSchema-instance" xsi:noNamespaceSchemaLocation="http://sumo.dlr.de/xsd/sumoConfiguration.xsd">

    <input>
        <net-file value="SUMO\LongCircleRoad\LongCircleRoad.net.xml"/>
        <route-files value="SUMO\LongCircleRoad\LongCircleRoad.rou.xml"/>
        <additional-files value="SUMO\LongCircleRoad\LongCircleRoad.add.xml"/>
    </input>

    <output>
        <emission-output value="emissionBaseValues.xml"/>
    </output>

    <time>
        <begin value="0"/>
        <end value="1000"/>
        <step-length value="0.2"/>
    </time>

    <processing>
        <lateral-resolution value="10"/>
        <collision.action value="warn"/>
        <collision.mingap-factor value="0"/>
        <time-to-teleport value="-1"/>
    </processing>

    <traci_server>
        <remote-port value="55066"/>
    </traci_server>

    <gui_only>
        <delay value="150"/>
    </gui_only>

</configuration>
-->

<emission-export xmlns:xsi="http://www.w3.org/2001/XMLSchema-instance" xsi:noNamespaceSchemaLocation="http://sumo.dlr.de/xsd/emission_file.xsd">
    <timestep time="0.00">
        <vehicle id="veh0" eclass="HBEFA4/PC_petrol_Euro-6d" CO2="1547.12" CO="3.69" HC="0.03" NOx="0.04" PMx="0.23" fuel="501.42" electricity="0.00" noise="73.89" route="GoingInCircles" type="CarNoGap" waiting="0.00" lane="E0102_0" pos="1404.51" speed="30.00" angle="45.00" x="1005.59" y="994.27"/>
        <vehicle id="veh1" eclass="HBEFA4/PC_petrol_Euro-6d" CO2="1547.12" CO="3.69" HC="0.03" NOx="0.04" PMx="0.23" fuel="501.42" electricity="0.00" noise="73.89" route="GoingInCircles" type="CarNoGap" waiting="0.00" lane="E0102_0" pos="1396.41" speed="30.00" angle="45.00" x="999.86" y="988.54"/>
        <vehicle id="veh2" eclass="HBEFA4/PC_petrol_Euro-6d" CO2="1547.12" CO="3.69" HC="0.03" NOx="0.04" PMx="0.23" fuel="501.42" electricity="0.00" noise="73.89" route="GoingInCircles" type="CarNoGap" waiting="0.00" lane="E0102_0" pos="1388.31" speed="30.00" angle="45.00" x="994.13" y="982.81"/>
        <vehicle id="veh3" eclass="HBEFA4/PC_petrol_Euro-6d" CO2="1547.12" CO="3.69" HC="0.03" NOx="0.04" PMx="0.23" fuel="501.42" electricity="0.00" noise="73.89" route="GoingInCircles" type="CarNoGap" waiting="0.00" lane="E0102_0" pos="1380.21" speed="30.00" angle="45.00" x="988.41" y="977.09"/>
        <vehicle id="veh4" eclass="HBEFA4/PC_petrol_Euro-6d" CO2="1547.12" CO="3.69" HC="0.03" NOx="0.04" PMx="0.23" fuel="501.42" electricity="0.00" noise="73.89" route="GoingInCircles" type="CarNoGap" waiting="0.00" lane="E0102_0" pos="1372.11" speed="30.00" angle="45.00" x="982.68" y="971.36"/>
        <vehicle id="veh5" eclass="HBEFA4/PC_petrol_Euro-6d" CO2="1547.12" CO="3.69" HC="0.03" NOx="0.04" PMx="0.23" fuel="501.42" electricity="0.00" noise="73.89" route="GoingInCircles" type="CarNoGap" waiting="0.00" lane="E0102_0" pos="1364.01" speed="30.00" angle="45.00" x="976.95" y="965.63"/>
        <vehicle id="veh6" eclass="HBEFA4/PC_petrol_Euro-6d" CO2="1547.12" CO="3.69" HC="0.03" NOx="0.04" PMx="0.23" fuel="501.42" electricity="0.00" noise="73.89" route="GoingInCircles" type="CarNoGap" waiting="0.00" lane="E0102_0" pos="1355.91" speed="30.00" angle="45.00" x="971.22" y="959.90"/>
        <vehicle id="veh7" eclass="HBEFA4/PC_petrol_Euro-6d" CO2="1547.12" CO="3.69" HC="0.03" NOx="0.04" PMx="0.23" fuel="501.42" electricity="0.00" noise="73.89" route="GoingInCircles" type="CarNoGap" waiting="0.00" lane="E0102_0" pos="1347.81" speed="30.00" angle="45.00" x="965.50" y="954.18"/>
        <vehicle id="veh8" eclass="HBEFA4/PC_petrol_Euro-6d" CO2="1547.12" CO="3.69" HC="0.03" NOx="0.04" PMx="0.23" fuel="501.42" electricity="0.00" noise="73.89" route="GoingInCircles" type="CarNoGap" waiting="0.00" lane="E0102_0" pos="1339.71" speed="30.00" angle="45.00" x="959.77" y="948.45"/>
        <vehicle id="veh9" eclass="HBEFA4/PC_petrol_Euro-6d" CO2="1547.12" CO="3.69" HC="0.03" NOx="0.04" PMx="0.23" fuel="501.42" electricity="0.00" noise="73.89" route="GoingInCircles" type="CarNoGap" waiting="0.00" lane="E0102_0" pos="1331.61" speed="30.00" angle="45.00" x="954.04" y="942.72"/>
    </timestep>
    <timestep time="0.20">
        <vehicle id="veh0" eclass="HBEFA4/PC_petrol_Euro-6d" CO2="1547.12" CO="3.69" HC="0.03" NOx="0.04" PMx="0.23" fuel="501.42" electricity="0.00" noise="73.89" route="GoingInCircles" type="CarNoGap" waiting="0.00" lane="E0203_0" pos="5.80" speed="30.00" angle="44.67" x="1009.73" y="998.47"/>
        <vehicle id="veh1" eclass="HBEFA4/PC_petrol_Euro-6d" CO2="4127.77" CO="9.32" HC="0.13" NOx="0.44" PMx="0.26" fuel="1337.99" electricity="0.00" noise="76.88" route="GoingInCircles" type="CarNoGap" waiting="0.00" lane="E0102_0" pos="1402.46" speed="30.26" angle="44.67" x="1004.11" y="992.85"/>
        <vehicle id="veh2" eclass="HBEFA4/PC_petrol_Euro-6d" CO2="4127.77" CO="9.32" HC="0.13" NOx="0.44" PMx="0.26" fuel="1337.99" electricity="0.00" noise="76.88" route="GoingInCircles" type="CarNoGap" waiting="0.00" lane="E0102_0" pos="1394.36" speed="30.26" angle="44.67" x="998.38" y="987.12"/>
        <vehicle id="veh3" eclass="HBEFA4/PC_petrol_Euro-6d" CO2="4127.77" CO="9.32" HC="0.13" NOx="0.44" PMx="0.26" fuel="1337.99" electricity="0.00" noise="76.88" route="GoingInCircles" type="CarNoGap" waiting="0.00" lane="E0102_0" pos="1386.26" speed="30.26" angle="44.67" x="992.66" y="981.39"/>
        <vehicle id="veh4" eclass="HBEFA4/PC_petrol_Euro-6d" CO2="4127.77" CO="9.32" HC="0.13" NOx="0.44" PMx="0.26" fuel="1337.99" electricity="0.00" noise="76.88" route="GoingInCircles" type="CarNoGap" waiting="0.00" lane="E0102_0" pos="1378.16" speed="30.26" angle="44.67" x="986.93" y="975.67"/>
        <vehicle id="veh5" eclass="HBEFA4/PC_petrol_Euro-6d" CO2="4127.77" CO="9.32" HC="0.13" NOx="0.44" PMx="0.26" fuel="1337.99" electricity="0.00" noise="76.88" route="GoingInCircles" type="CarNoGap" waiting="0.00" lane="E0102_0" pos="1370.06" speed="30.26" angle="44.67" x="981.20" y="969.94"/>
        <vehicle id="veh6" eclass="HBEFA4/PC_petrol_Euro-6d" CO2="4127.77" CO="9.32" HC="0.13" NOx="0.44" PMx="0.26" fuel="1337.99" electricity="0.00" noise="76.88" route="GoingInCircles" type="CarNoGap" waiting="0.00" lane="E0102_0" pos="1361.96" speed="30.26" angle="44.67" x="975.47" y="964.21"/>
        <vehicle id="veh7" eclass="HBEFA4/PC_petrol_Euro-6d" CO2="4127.77" CO="9.32" HC="0.13" NOx="0.44" PMx="0.26" fuel="1337.99" electricity="0.00" noise="76.88" route="GoingInCircles" type="CarNoGap" waiting="0.00" lane="E0102_0" pos="1353.86" speed="30.26" angle="44.67" x="969.75" y="958.48"/>
        <vehicle id="veh8" eclass="HBEFA4/PC_petrol_Euro-6d" CO2="4127.77" CO="9.32" HC="0.13" NOx="0.44" PMx="0.26" fuel="1337.99" electricity="0.00" noise="76.88" route="GoingInCircles" type="CarNoGap" waiting="0.00" lane="E0102_0" pos="1345.76" speed="30.26" angle="44.67" x="964.02" y="952.76"/>
        <vehicle id="veh9" eclass="HBEFA4/PC_petrol_Euro-6d" CO2="4127.77" CO="9.32" HC="0.13" NOx="0.44" PMx="0.26" fuel="1337.99" electricity="0.00" noise="76.88" route="GoingInCircles" type="CarNoGap" waiting="0.00" lane="E0102_0" pos="1337.66" speed="30.26" angle="44.67" x="958.29" y="947.03"/>
    </timestep>
    <timestep time="0.40">
        <vehicle id="veh0" eclass="HBEFA4/PC_petrol_Euro-6d" CO2="1547.12" CO="3.69" HC="0.03" NOx="0.04" PMx="0.23" fuel="501.42" electricity="0.00" noise="73.89" route="GoingInCircles" type="CarNoGap" waiting="0.00" lane="E0203_0" pos="11.80" speed="30.00" angle="44.35" x="1013.92" y="1002.77"/>
        <vehicle id="veh1" eclass="HBEFA4/PC_petrol_Euro-6d" CO2="1448.37" CO="3.47" HC="0.02" NOx="0.02" PMx="0.23" fuel="469.41" electricity="0.00" noise="73.93" route="GoingInCircles" type="CarNoGap" waiting="0.00" lane="E0203_0" pos="3.80" speed="30.25" angle="44.35" x="1008.26" y="997.11"/>
        <vehicle id="veh2" eclass="HBEFA4/PC_petrol_Euro-6d" CO2="4115.67" CO="9.28" HC="0.13" NOx="0.45" PMx="0.27" fuel="1334.06" electricity="0.00" noise="76.96" route="GoingInCircles" type="CarNoGap" waiting="0.00" lane="E0102_0" pos="1400.46" speed="30.51" angle="44.35" x="1002.64" y="991.49"/>
        <vehicle id="veh3" eclass="HBEFA4/PC_petrol_Euro-6d" CO2="4115.67" CO="9.28" HC="0.13" NOx="0.45" PMx="0.27" fuel="1334.06" electricity="0.00" noise="76.96" route="GoingInCircles" type="CarNoGap" waiting="0.00" lane="E0102_0" pos="1392.36" speed="30.51" angle="44.35" x="996.92" y="985.77"/>
        <vehicle id="veh4" eclass="HBEFA4/PC_petrol_Euro-6d" CO2="4115.67" CO="9.28" HC="0.13" NOx="0.45" PMx="0.27" fuel="1334.06" electricity="0.00" noise="76.96" route="GoingInCircles" type="CarNoGap" waiting="0.00" lane="E0102_0" pos="1384.26" speed="30.51" angle="44.35" x="991.19" y="980.04"/>
        <vehicle id="veh5" eclass="HBEFA4/PC_petrol_Euro-6d" CO2="4115.67" CO="9.28" HC="0.13" NOx="0.45" PMx="0.27" fuel="1334.06" electricity="0.00" noise="76.96" route="GoingInCircles" type="CarNoGap" waiting="0.00" lane="E0102_0" pos="1376.16" speed="30.51" angle="44.35" x="985.46" y="974.31"/>
        <vehicle id="veh6" eclass="HBEFA4/PC_petrol_Euro-6d" CO2="4115.67" CO="9.28" HC="0.13" NOx="0.45" PMx="0.27" fuel="1334.06" electricity="0.00" noise="76.96" route="GoingInCircles" type="CarNoGap" waiting="0.00" lane="E0102_0" pos="1368.06" speed="30.51" angle="44.35" x="979.73" y="968.58"/>
        <vehicle id="veh7" eclass="HBEFA4/PC_petrol_Euro-6d" CO2="4115.67" CO="9.28" HC="0.13" NOx="0.45" PMx="0.27" fuel="1334.06" electricity="0.00" noise="76.96" route="GoingInCircles" type="CarNoGap" waiting="0.00" lane="E0102_0" pos="1359.96" speed="30.51" angle="44.35" x="974.01" y="962.85"/>
        <vehicle id="veh8" eclass="HBEFA4/PC_petrol_Euro-6d" CO2="4115.67" CO="9.28" HC="0.13" NOx="0.45" PMx="0.27" fuel="1334.06" electricity="0.00" noise="76.96" route="GoingInCircles" type="CarNoGap" waiting="0.00" lane="E0102_0" pos="1351.86" speed="30.51" angle="44.35" x="968.28" y="957.13"/>
        <vehicle id="veh9" eclass="HBEFA4/PC_petrol_Euro-6d" CO2="4115.67" CO="9.28" HC="0.13" NOx="0.45" PMx="0.27" fuel="1334.06" electricity="0.00" noise="76.96" route="GoingInCircles" type="CarNoGap" waiting="0.00" lane="E0102_0" pos="1343.76" speed="30.51" angle="44.35" x="962.55" y="951.40"/>
    </timestep>
    <timestep time="0.60">
        <vehicle id="veh0" eclass="HBEFA4/PC_petrol_Euro-6d" CO2="1547.12" CO="3.69" HC="0.03" NOx="0.04" PMx="0.23" fuel="501.42" electricity="0.00" noise="73.89" route="GoingInCircles" type="CarNoGap" waiting="0.00" lane="E0203_0" pos="17.80" speed="30.00" angle="44.02" x="1018.08" y="1007.10"/>
        <vehicle id="veh1" eclass="HBEFA4/PC_petrol_Euro-6d" CO2="1452.30" CO="3.48" HC="0.02" NOx="0.02" PMx="0.23" fuel="470.68" electricity="0.00" noise="73.93" route="GoingInCircles" type="CarNoGap" waiting="0.00" lane="E0203_0" pos="9.85" speed="30.24" angle="44.02" x="1012.45" y="1001.47"/>
        <vehicle id="veh2" eclass="HBEFA4/PC_petrol_Euro-6d" CO2="1346.82" CO="3.25" HC="0.02" NOx="0.01" PMx="0.23" fuel="436.48" electricity="0.00" noise="73.97" route="GoingInCircles" type="CarNoGap" waiting="0.00" lane="E0203_0" pos="1.85" speed="30.49" angle="44.03" x="1006.80" y="995.82"/>
        <vehicle id="veh3" eclass="HBEFA4/PC_petrol_Euro-6d" CO2="4103.42" CO="9.24" HC="0.13" NOx="0.45" PMx="0.27" fuel="1330.09" electricity="0.00" noise="77.03" route="GoingInCircles" type="CarNoGap" waiting="0.00" lane="E0102_0" pos="1398.52" speed="30.76" angle="44.04" x="1001.18" y="990.20"/>
        <vehicle id="veh4" eclass="HBEFA4/PC_petrol_Euro-6d" CO2="4103.42" CO="9.24" HC="0.13" NOx="0.45" PMx="0.27" fuel="1330.09" electricity="0.00" noise="77.03" route="GoingInCircles" type="CarNoGap" waiting="0.00" lane="E0102_0" pos="1390.42" speed="30.76" angle="44.04" x="995.45" y="984.47"/>
        <vehicle id="veh5" eclass="HBEFA4/PC_petrol_Euro-6d" CO2="4103.42" CO="9.24" HC="0.13" NOx="0.45" PMx="0.27" fuel="1330.09" electricity="0.00" noise="77.03" route="GoingInCircles" type="CarNoGap" waiting="0.00" lane="E0102_0" pos="1382.32" speed="30.76" angle="44.04" x="989.73" y="978.75"/>
        <vehicle id="veh6" eclass="HBEFA4/PC_petrol_Euro-6d" CO2="4103.42" CO="9.24" HC="0.13" NOx="0.45" PMx="0.27" fuel="1330.09" electricity="0.00" noise="77.03" route="GoingInCircles" type="CarNoGap" waiting="0.00" lane="E0102_0" pos="1374.22" speed="30.76" angle="44.04" x="984.00" y="973.02"/>
        <vehicle id="veh7" eclass="HBEFA4/PC_petrol_Euro-6d" CO2="4103.42" CO="9.24" HC="0.13" NOx="0.45" PMx="0.27" fuel="1330.09" electricity="0.00" noise="77.03" route="GoingInCircles" type="CarNoGap" waiting="0.00" lane="E0102_0" pos="1366.12" speed="30.76" angle="44.04" x="978.27" y="967.29"/>
        <vehicle id="veh8" eclass="HBEFA4/PC_petrol_Euro-6d" CO2="4103.42" CO="9.24" HC="0.13" NOx="0.45" PMx="0.27" fuel="1330.09" electricity="0.00" noise="77.03" route="GoingInCircles" type="CarNoGap" waiting="0.00" lane="E0102_0" pos="1358.02" speed="30.76" angle="44.04" x="972.54" y="961.56"/>
        <vehicle id="veh9" eclass="HBEFA4/PC_petrol_Euro-6d" CO2="4103.42" CO="9.24" HC="0.13" NOx="0.45" PMx="0.27" fuel="1330.09" electricity="0.00" noise="77.03" route="GoingInCircles" type="CarNoGap" waiting="0.00" lane="E0102_0" pos="1349.92" speed="30.76" angle="44.04" x="966.82" y="955.83"/>
    </timestep>
    <timestep time="0.80">
        <vehicle id="veh0" eclass="HBEFA4/PC_petrol_Euro-6d" CO2="1547.12" CO="3.69" HC="0.03" NOx="0.04" PMx="0.23" fuel="501.42" electricity="0.00" noise="73.89" route="GoingInCircles" type="CarNoGap" waiting="0.00" lane="E0203_0" pos="23.80" speed="30.00" angle="43.69" x="1022.21" y="1011.45"/>
        <vehicle id="veh1" eclass="HBEFA4/PC_petrol_Euro-6d" CO2="1456.07" CO="3.49" HC="0.02" NOx="0.02" PMx="0.23" fuel="471.90" electricity="0.00" noise="73.93" route="GoingInCircles" type="CarNoGap" waiting="0.00" lane="E0203_0" pos="15.89" speed="30.23" angle="43.70" x="1016.62" y="1005.86"/>
        <vehicle id="veh2" eclass="HBEFA4/PC_petrol_Euro-6d" CO2="1354.93" CO="3.26" HC="0.02" NOx="0.01" PMx="0.23" fuel="439.12" electricity="0.00" noise="73.96" route="GoingInCircles" type="CarNoGap" waiting="0.00" lane="E0203_0" pos="7.95" speed="30.47" angle="43.71" x="1011.00" y="1000.24"/>
        <vehicle id="veh3" eclass="HBEFA4/PC_petrol_Euro-6d" CO2="1242.38" CO="3.02" HC="0.01" NOx="-0.01" PMx="0.23" fuel="402.63" electricity="0.00" noise="74.01" route="GoingInCircles" type="CarNoGap" waiting="0.00" lane=":J2_0_0" pos="0.05" speed="30.73" angle="43.72" x="1005.38" y="994.62"/>
        <vehicle id="veh4" eclass="HBEFA4/PC_petrol_Euro-6d" CO2="4091.01" CO="9.20" HC="0.13" NOx="0.45" PMx="0.27" fuel="1326.07" electricity="0.00" noise="77.11" route="GoingInCircles" type="CarNoGap" waiting="0.00" lane="E0102_0" pos="1396.62" speed="31.01" angle="43.73" x="999.73" y="988.97"/>
        <vehicle id="veh5" eclass="HBEFA4/PC_petrol_Euro-6d" CO2="4091.01" CO="9.20" HC="0.13" NOx="0.45" PMx="0.27" fuel="1326.07" electricity="0.00" noise="77.11" route="GoingInCircles" type="CarNoGap" waiting="0.00" lane="E0102_0" pos="1388.52" speed="31.01" angle="43.73" x="994.00" y="983.24"/>
        <vehicle id="veh6" eclass="HBEFA4/PC_petrol_Euro-6d" CO2="4091.01" CO="9.20" HC="0.13" NOx="0.45" PMx="0.27" fuel="1326.07" electricity="0.00" noise="77.11" route="GoingInCircles" type="CarNoGap" waiting="0.00" lane="E0102_0" pos="1380.42" speed="31.01" angle="43.73" x="988.27" y="977.52"/>
        <vehicle id="veh7" eclass="HBEFA4/PC_petrol_Euro-6d" CO2="4091.01" CO="9.20" HC="0.13" NOx="0.45" PMx="0.27" fuel="1326.07" electricity="0.00" noise="77.11" route="GoingInCircles" type="CarNoGap" waiting="0.00" lane="E0102_0" pos="1372.32" speed="31.01" angle="43.73" x="982.54" y="971.79"/>
        <vehicle id="veh8" eclass="HBEFA4/PC_petrol_Euro-6d" CO2="4091.01" CO="9.20" HC="0.13" NOx="0.45" PMx="0.27" fuel="1326.07" electricity="0.00" noise="77.11" route="GoingInCircles" type="CarNoGap" waiting="0.00" lane="E0102_0" pos="1364.22" speed="31.01" angle="43.73" x="976.82" y="966.06"/>
        <vehicle id="veh9" eclass="HBEFA4/PC_petrol_Euro-6d" CO2="4091.01" CO="9.20" HC="0.13" NOx="0.45" PMx="0.27" fuel="1326.07" electricity="0.00" noise="77.11" route="GoingInCircles" type="CarNoGap" waiting="0.00" lane="E0102_0" pos="1356.12" speed="31.01" angle="43.73" x="971.09" y="960.33"/>
    </timestep>
    <timestep time="1.00">
        <vehicle id="veh0" eclass="HBEFA4/PC_petrol_Euro-6d" CO2="1547.12" CO="3.69" HC="0.03" NOx="0.04" PMx="0.23" fuel="501.42" electricity="0.00" noise="73.89" route="GoingInCircles" type="CarNoGap" waiting="0.00" lane="E0203_0" pos="29.80" speed="30.00" angle="43.36" x="1026.31" y="1015.84"/>
        <vehicle id="veh1" eclass="HBEFA4/PC_petrol_Euro-6d" CO2="1459.69" CO="3.49" HC="0.02" NOx="0.02" PMx="0.23" fuel="473.07" electricity="0.00" noise="73.92" route="GoingInCircles" type="CarNoGap" waiting="0.00" lane="E0203_0" pos="21.94" speed="30.22" angle="43.37" x="1020.75" y="1010.28"/>
        <vehicle id="veh2" eclass="HBEFA4/PC_petrol_Euro-6d" CO2="1362.71" CO="3.28" HC="0.02" NOx="0.01" PMx="0.23" fuel="441.64" electricity="0.00" noise="73.96" route="GoingInCircles" type="CarNoGap" waiting="0.00" lane="E0203_0" pos="14.04" speed="30.45" angle="43.38" x="1015.16" y="1004.69"/>
        <vehicle id="veh3" eclass="HBEFA4/PC_petrol_Euro-6d" CO2="1254.96" CO="3.05" HC="0.01" NOx="-0.01" PMx="0.23" fuel="406.71" electricity="0.00" noise="74.00" route="GoingInCircles" type="CarNoGap" waiting="0.00" lane="E0203_0" pos="6.09" speed="30.70" angle="43.40" x="1009.54" y="999.07"/>
        <vehicle id="veh4" eclass="HBEFA4/PC_petrol_Euro-6d" CO2="1134.99" CO="2.79" HC="0.01" NOx="-0.03" PMx="0.24" fuel="367.82" electricity="0.00" noise="74.04" route="GoingInCircles" type="CarNoGap" waiting="0.00" lane="E0102_0" pos="1402.81" speed="30.97" angle="43.41" x="1003.96" y="993.49"/>
        <vehicle id="veh5" eclass="HBEFA4/PC_petrol_Euro-6d" CO2="4057.41" CO="9.11" HC="0.13" NOx="0.45" PMx="0.27" fuel="1315.18" electricity="0.00" noise="77.15" route="GoingInCircles" type="CarNoGap" waiting="0.00" lane="E0102_0" pos="1394.77" speed="31.25" angle="43.42" x="998.28" y="987.80"/>
        <vehicle id="veh6" eclass="HBEFA4/PC_petrol_Euro-6d" CO2="4057.41" CO="9.11" HC="0.13" NOx="0.45" PMx="0.27" fuel="1315.18" electricity="0.00" noise="77.15" route="GoingInCircles" type="CarNoGap" waiting="0.00" lane="E0102_0" pos="1386.67" speed="31.25" angle="43.42" x="992.55" y="982.08"/>
        <vehicle id="veh7" eclass="HBEFA4/PC_petrol_Euro-6d" CO2="4057.41" CO="9.11" HC="0.13" NOx="0.45" PMx="0.27" fuel="1315.18" electricity="0.00" noise="77.15" route="GoingInCircles" type="CarNoGap" waiting="0.00" lane="E0102_0" pos="1378.57" speed="31.25" angle="43.42" x="986.82" y="976.35"/>
        <vehicle id="veh8" eclass="HBEFA4/PC_petrol_Euro-6d" CO2="4057.41" CO="9.11" HC="0.13" NOx="0.45" PMx="0.27" fuel="1315.18" electricity="0.00" noise="77.15" route="GoingInCircles" type="CarNoGap" waiting="0.00" lane="E0102_0" pos="1370.47" speed="31.25" angle="43.42" x="981.09" y="970.62"/>
        <vehicle id="veh9" eclass="HBEFA4/PC_petrol_Euro-6d" CO2="4057.41" CO="9.11" HC="0.13" NOx="0.45" PMx="0.27" fuel="1315.18" electricity="0.00" noise="77.15" route="GoingInCircles" type="CarNoGap" waiting="0.00" lane="E0102_0" pos="1362.37" speed="31.25" angle="43.42" x="975.37" y="964.89"/>
    </timestep>
    <timestep time="1.20">
        <vehicle id="veh0" eclass="HBEFA4/PC_petrol_Euro-6d" CO2="1547.12" CO="3.69" HC="0.03" NOx="0.04" PMx="0.23" fuel="501.42" electricity="0.00" noise="73.89" route="GoingInCircles" type="CarNoGap" waiting="0.00" lane="E0203_0" pos="35.80" speed="30.00" angle="43.36" x="1030.41" y="1020.22"/>
        <vehicle id="veh1" eclass="HBEFA4/PC_petrol_Euro-6d" CO2="1463.16" CO="3.50" HC="0.02" NOx="0.02" PMx="0.23" fuel="474.20" electricity="0.00" noise="73.92" route="GoingInCircles" type="CarNoGap" waiting="0.00" lane="E0203_0" pos="27.98" speed="30.21" angle="43.37" x="1024.88" y="1014.69"/>
        <vehicle id="veh2" eclass="HBEFA4/PC_petrol_Euro-6d" CO2="1370.18" CO="3.30" HC="0.02" NOx="0.01" PMx="0.23" fuel="444.06" electricity="0.00" noise="73.96" route="GoingInCircles" type="CarNoGap" waiting="0.00" lane="E0203_0" pos="20.12" speed="30.43" angle="43.38" x="1019.32" y="1009.13"/>
        <vehicle id="veh3" eclass="HBEFA4/PC_petrol_Euro-6d" CO2="1267.02" CO="3.07" HC="0.01" NOx="-0.01" PMx="0.23" fuel="410.62" electricity="0.00" noise="74.00" route="GoingInCircles" type="CarNoGap" waiting="0.00" lane="E0203_0" pos="12.23" speed="30.67" angle="43.39" x="1013.74" y="1003.55"/>
        <vehicle id="veh4" eclass="HBEFA4/PC_petrol_Euro-6d" CO2="1152.33" CO="2.82" HC="0.01" NOx="-0.03" PMx="0.23" fuel="373.44" electricity="0.00" noise="74.04" route="GoingInCircles" type="CarNoGap" waiting="0.00" lane="E0203_0" pos="4.29" speed="30.93" angle="43.41" x="1008.13" y="997.94"/>
        <vehicle id="veh5" eclass="HBEFA4/PC_petrol_Euro-6d" CO2="1045.83" CO="2.59" HC="0.01" NOx="-0.04" PMx="0.24" fuel="338.91" electricity="0.00" noise="74.09" route="GoingInCircles" type="CarNoGap" waiting="0.00" lane="E0102_0" pos="1401.01" speed="31.20" angle="43.42" x="1002.55" y="992.36"/>
        <vehicle id="veh6" eclass="HBEFA4/PC_petrol_Euro-6d" CO2="3970.21" CO="8.91" HC="0.13" NOx="0.44" PMx="0.27" fuel="1286.91" electricity="0.00" noise="77.12" route="GoingInCircles" type="CarNoGap" waiting="0.00" lane="E0102_0" pos="1392.96" speed="31.48" angle="43.43" x="996.86" y="986.67"/>
        <vehicle id="veh7" eclass="HBEFA4/PC_petrol_Euro-6d" CO2="3970.21" CO="8.91" HC="0.13" NOx="0.44" PMx="0.27" fuel="1286.91" electricity="0.00" noise="77.12" route="GoingInCircles" type="CarNoGap" waiting="0.00" lane="E0102_0" pos="1384.86" speed="31.48" angle="43.43" x="991.13" y="980.94"/>
        <vehicle id="veh8" eclass="HBEFA4/PC_petrol_Euro-6d" CO2="3970.21" CO="8.91" HC="0.13" NOx="0.44" PMx="0.27" fuel="1286.91" electricity="0.00" noise="77.12" route="GoingInCircles" type="CarNoGap" waiting="0.00" lane="E0102_0" pos="1376.76" speed="31.48" angle="43.43" x="985.40" y="975.22"/>
        <vehicle id="veh9" eclass="HBEFA4/PC_petrol_Euro-6d" CO2="3970.21" CO="8.91" HC="0.13" NOx="0.44" PMx="0.27" fuel="1286.91" electricity="0.00" noise="77.12" route="GoingInCircles" type="CarNoGap" waiting="0.00" lane="E0102_0" pos="1368.66" speed="31.48" angle="43.43" x="979.68" y="969.49"/>
    </timestep>
    <timestep time="1.40">
        <vehicle id="veh0" eclass="HBEFA4/PC_petrol_Euro-6d" CO2="1547.12" CO="3.69" HC="0.03" NOx="0.04" PMx="0.23" fuel="501.42" electricity="0.00" noise="73.89" route="GoingInCircles" type="CarNoGap" waiting="0.00" lane="E0203_0" pos="41.80" speed="30.00" angle="43.36" x="1034.51" y="1024.60"/>
        <vehicle id="veh1" eclass="HBEFA4/PC_petrol_Euro-6d" CO2="1466.49" CO="3.51" HC="0.02" NOx="0.02" PMx="0.23" fuel="475.28" electricity="0.00" noise="73.92" route="GoingInCircles" type="CarNoGap" waiting="0.00" lane="E0203_0" pos="34.02" speed="30.20" angle="43.37" x="1029.01" y="1019.10"/>
        <vehicle id="veh2" eclass="HBEFA4/PC_petrol_Euro-6d" CO2="1377.34" CO="3.31" HC="0.02" NOx="0.01" PMx="0.23" fuel="446.38" electricity="0.00" noise="73.95" route="GoingInCircles" type="CarNoGap" waiting="0.00" lane="E0203_0" pos="26.21" speed="30.42" angle="43.38" x="1023.48" y="1013.58"/>
        <vehicle id="veh3" eclass="HBEFA4/PC_petrol_Euro-6d" CO2="1278.57" CO="3.10" HC="0.02" NOx="-0.01" PMx="0.23" fuel="414.36" electricity="0.00" noise="73.99" route="GoingInCircles" type="CarNoGap" waiting="0.00" lane="E0203_0" pos="18.36" speed="30.64" angle="43.39" x="1017.93" y="1008.03"/>
        <vehicle id="veh4" eclass="HBEFA4/PC_petrol_Euro-6d" CO2="1168.93" CO="2.86" HC="0.01" NOx="-0.02" PMx="0.23" fuel="378.82" electricity="0.00" noise="74.03" route="GoingInCircles" type="CarNoGap" waiting="0.00" lane="E0203_0" pos="10.46" speed="30.89" angle="43.40" x="1012.35" y="1002.45"/>
        <vehicle id="veh5" eclass="HBEFA4/PC_petrol_Euro-6d" CO2="1047.44" CO="2.60" HC="0.01" NOx="-0.04" PMx="0.24" fuel="339.43" electricity="0.00" noise="74.07" route="GoingInCircles" type="CarNoGap" waiting="0.00" lane="E0203_0" pos="2.53" speed="31.15" angle="43.42" x="1006.74" y="996.83"/>
        <vehicle id="veh6" eclass="HBEFA4/PC_petrol_Euro-6d" CO2="940.94" CO="2.37" HC="0.00" NOx="-0.06" PMx="0.24" fuel="304.91" electricity="0.00" noise="74.13" route="GoingInCircles" type="CarNoGap" waiting="0.00" lane="E0102_0" pos="1399.25" speed="31.42" angle="43.43" x="1001.16" y="991.26"/>
        <vehicle id="veh7" eclass="HBEFA4/PC_petrol_Euro-6d" CO2="3958.49" CO="8.88" HC="0.13" NOx="0.44" PMx="0.27" fuel="1283.11" electricity="0.00" noise="77.19" route="GoingInCircles" type="CarNoGap" waiting="0.00" lane="E0102_0" pos="1391.21" speed="31.71" angle="43.44" x="995.48" y="985.57"/>
        <vehicle id="veh8" eclass="HBEFA4/PC_petrol_Euro-6d" CO2="3958.49" CO="8.88" HC="0.13" NOx="0.44" PMx="0.27" fuel="1283.11" electricity="0.00" noise="77.19" route="GoingInCircles" type="CarNoGap" waiting="0.00" lane="E0102_0" pos="1383.11" speed="31.71" angle="43.44" x="989.75" y="979.84"/>
        <vehicle id="veh9" eclass="HBEFA4/PC_petrol_Euro-6d" CO2="3958.49" CO="8.88" HC="0.13" NOx="0.44" PMx="0.27" fuel="1283.11" electricity="0.00" noise="77.19" route="GoingInCircles" type="CarNoGap" waiting="0.00" lane="E0102_0" pos="1375.01" speed="31.71" angle="43.44" x="984.02" y="974.11"/>
    </timestep>
    <timestep time="1.60">
        <vehicle id="veh0" eclass="HBEFA4/PC_petrol_Euro-6d" CO2="1547.12" CO="3.69" HC="0.03" NOx="0.04" PMx="0.23" fuel="501.42" electricity="0.00" noise="73.89" route="GoingInCircles" type="CarNoGap" waiting="0.00" lane="E0203_0" pos="47.80" speed="30.00" angle="43.36" x="1038.61" y="1028.99"/>
        <vehicle id="veh1" eclass="HBEFA4/PC_petrol_Euro-6d" CO2="1469.70" CO="3.52" HC="0.02" NOx="0.03" PMx="0.23" fuel="476.32" electricity="0.00" noise="73.92" route="GoingInCircles" type="CarNoGap" waiting="0.00" lane="E0203_0" pos="40.06" speed="30.19" angle="43.37" x="1033.14" y="1023.51"/>
        <vehicle id="veh2" eclass="HBEFA4/PC_petrol_Euro-6d" CO2="1384.21" CO="3.33" HC="0.02" NOx="0.01" PMx="0.23" fuel="448.61" electricity="0.00" noise="73.95" route="GoingInCircles" type="CarNoGap" waiting="0.00" lane="E0203_0" pos="32.29" speed="30.40" angle="43.38" x="1027.64" y="1018.02"/>
        <vehicle id="veh3" eclass="HBEFA4/PC_petrol_Euro-6d" CO2="1289.64" CO="3.12" HC="0.02" NOx="-0.00" PMx="0.23" fuel="417.95" electricity="0.00" noise="73.99" route="GoingInCircles" type="CarNoGap" waiting="0.00" lane="E0203_0" pos="24.48" speed="30.62" angle="43.39" x="1022.12" y="1012.50"/>
        <vehicle id="veh4" eclass="HBEFA4/PC_petrol_Euro-6d" CO2="1184.82" CO="2.89" HC="0.01" NOx="-0.02" PMx="0.23" fuel="383.97" electricity="0.00" noise="74.02" route="GoingInCircles" type="CarNoGap" waiting="0.00" lane="E0203_0" pos="16.63" speed="30.85" angle="43.40" x="1016.57" y="1006.95"/>
        <vehicle id="veh5" eclass="HBEFA4/PC_petrol_Euro-6d" CO2="1068.37" CO="2.64" HC="0.01" NOx="-0.04" PMx="0.24" fuel="346.22" electricity="0.00" noise="74.06" route="GoingInCircles" type="CarNoGap" waiting="0.00" lane="E0203_0" pos="8.75" speed="31.10" angle="43.41" x="1011.00" y="1001.37"/>
        <vehicle id="veh6" eclass="HBEFA4/PC_petrol_Euro-6d" CO2="965.93" CO="2.42" HC="0.00" NOx="-0.06" PMx="0.24" fuel="313.01" electricity="0.00" noise="74.12" route="GoingInCircles" type="CarNoGap" waiting="0.00" lane="E0203_0" pos="0.81" speed="31.37" angle="43.42" x="1005.39" y="995.76"/>
        <vehicle id="veh7" eclass="HBEFA4/PC_petrol_Euro-6d" CO2="833.22" CO="2.13" HC="-0.00" NOx="-0.08" PMx="0.24" fuel="269.99" electricity="0.00" noise="74.17" route="GoingInCircles" type="CarNoGap" waiting="0.00" lane="E0102_0" pos="1397.54" speed="31.64" angle="43.44" x="999.81" y="990.19"/>
        <vehicle id="veh8" eclass="HBEFA4/PC_petrol_Euro-6d" CO2="3946.66" CO="8.84" HC="0.13" NOx="0.45" PMx="0.28" fuel="1279.27" electricity="0.00" noise="77.26" route="GoingInCircles" type="CarNoGap" waiting="0.00" lane="E0102_0" pos="1389.50" speed="31.94" angle="43.45" x="994.12" y="984.50"/>
        <vehicle id="veh9" eclass="HBEFA4/PC_petrol_Euro-6d" CO2="3946.66" CO="8.84" HC="0.13" NOx="0.45" PMx="0.28" fuel="1279.27" electricity="0.00" noise="77.26" route="GoingInCircles" type="CarNoGap" waiting="0.00" lane="E0102_0" pos="1381.40" speed="31.94" angle="43.45" x="988.40" y="978.77"/>
    </timestep>
    <timestep time="1.80">
        <vehicle id="veh0" eclass="HBEFA4/PC_petrol_Euro-6d" CO2="1547.12" CO="3.69" HC="0.03" NOx="0.04" PMx="0.23" fuel="501.42" electricity="0.00" noise="73.89" route="GoingInCircles" type="CarNoGap" waiting="0.00" lane="E0203_0" pos="53.80" speed="30.00" angle="43.36" x="1042.71" y="1033.37"/>
        <vehicle id="veh1" eclass="HBEFA4/PC_petrol_Euro-6d" CO2="1472.77" CO="3.52" HC="0.02" NOx="0.03" PMx="0.23" fuel="477.31" electricity="0.00" noise="73.92" route="GoingInCircles" type="CarNoGap" waiting="0.00" lane="E0203_0" pos="46.10" speed="30.19" angle="43.37" x="1037.26" y="1027.92"/>
        <vehicle id="veh2" eclass="HBEFA4/PC_petrol_Euro-6d" CO2="1390.80" CO="3.34" HC="0.02" NOx="0.01" PMx="0.23" fuel="450.74" electricity="0.00" noise="73.95" route="GoingInCircles" type="CarNoGap" waiting="0.00" lane="E0203_0" pos="38.36" speed="30.38" angle="43.38" x="1031.80" y="1022.46"/>
        <vehicle id="veh3" eclass="HBEFA4/PC_petrol_Euro-6d" CO2="1300.25" CO="3.14" HC="0.02" NOx="-0.00" PMx="0.23" fuel="421.39" electricity="0.00" noise="73.98" route="GoingInCircles" type="CarNoGap" waiting="0.00" lane="E0203_0" pos="30.60" speed="30.59" angle="43.39" x="1026.31" y="1016.97"/>