<?xml version="1.0" encoding="UTF-8"?>

<!-- generated on 2022-03-19 15:20:56 by Eclipse SUMO GUI Version 1.10.0
<configuration xmlns:xsi="http://www.w3.org/2001/XMLSchema-instance" xsi:noNamespaceSchemaLocation="http://sumo.dlr.de/xsd/sumoConfiguration.xsd">

    <input>
        <net-file value="LongStraightHighway\LongStraightHighway.net.xml"/>
        <route-files value="LongStraightHighway\LongStraightHighway.rou.xml"/>
    </input>

    <output>
        <emission-output value="baseEmissions.xml"/>
    </output>

    <time>
        <begin value="0"/>
        <end value="1000"/>
    </time>

    <processing>
        <lateral-resolution value="10"/>
        <time-to-teleport value="-1"/>
    </processing>

    <traci_server>
        <remote-port value="52522"/>
    </traci_server>

</configuration>
-->

<emission-export xmlns:xsi="http://www.w3.org/2001/XMLSchema-instance" xsi:noNamespaceSchemaLocation="http://sumo.dlr.de/xsd/emission_file.xsd">
    <timestep time="0.00">
        <vehicle id="veh0" eclass="HBEFA3/PC_G_EU4" CO2="2624.72" CO="164.78" HC="0.81" NOx="1.20" PMx="0.07" fuel="1.13" electricity="0.00" noise="55.94" route="BottomStartTopEnd" type="CarNoGap" waiting="0.00" lane="Right01_0" pos="5.10" speed="0.00" angle="45.00" x="9.27" y="-2.05"/>
    </timestep>
    <timestep time="1.00">
        <vehicle id="veh0" eclass="HBEFA3/PC_G_EU4" CO2="4652.12" CO="157.25" HC="0.83" NOx="2.08" PMx="0.10" fuel="2.00" electricity="0.00" noise="70.30" route="BottomStartTopEnd" type="CarNoGap" waiting="0.00" lane="Right01_0" pos="8.10" speed="3.00" angle="37.87" x="10.68" y="0.77"/>
    </timestep>
    <timestep time="2.00">
        <vehicle id="veh0" eclass="HBEFA3/PC_G_EU4" CO2="6820.82" CO="160.15" HC="0.89" NOx="3.02" PMx="0.15" fuel="2.93" electricity="0.00" noise="71.55" route="BottomStartTopEnd" type="CarNoGap" waiting="0.00" lane="Right01_1" pos="14.10" speed="6.00" angle="39.81" x="14.21" y="5.73"/>
        <vehicle id="veh1" eclass="HBEFA3/PC_G_EU4" CO2="2624.72" CO="164.78" HC="0.81" NOx="1.20" PMx="0.07" fuel="1.13" electricity="0.00" noise="55.94" route="BottomStartTopEnd" type="CarNoGap" waiting="0.00" lane="Right01_0" pos="5.10" speed="0.00" angle="45.00" x="9.27" y="-2.05"/>
    </timestep>
    <timestep time="3.00">
        <vehicle id="veh0" eclass="HBEFA3/PC_G_EU4" CO2="9130.82" CO="173.49" HC="1.01" NOx="4.03" PMx="0.20" fuel="3.92" electricity="0.00" noise="72.88" route="BottomStartTopEnd" type="CarNoGap" waiting="0.00" lane="Right01_1" pos="23.10" speed="9.00" angle="42.95" x="20.22" y="12.45"/>
        <vehicle id="veh1" eclass="HBEFA3/PC_G_EU4" CO2="4652.12" CO="157.25" HC="0.83" NOx="2.08" PMx="0.10" fuel="2.00" electricity="0.00" noise="70.30" route="BottomStartTopEnd" type="CarNoGap" waiting="0.00" lane="Right01_0" pos="8.10" speed="3.00" angle="37.87" x="10.68" y="0.77"/>
    </timestep>
    <timestep time="4.00">
        <vehicle id="veh0" eclass="HBEFA3/PC_G_EU4" CO2="4718.89" CO="72.92" HC="0.44" NOx="1.93" PMx="0.08" fuel="2.03" electricity="0.00" noise="65.15" route="BottomStartTopEnd" type="CarNoGap" waiting="0.00" lane="Right01_1" pos="33.10" speed="10.00" angle="45.00" x="27.29" y="19.52"/>
        <vehicle id="veh1" eclass="HBEFA3/PC_G_EU4" CO2="6820.82" CO="160.15" HC="0.89" NOx="3.02" PMx="0.15" fuel="2.93" electricity="0.00" noise="71.55" route="BottomStartTopEnd" type="CarNoGap" waiting="0.00" lane="Right01_1" pos="14.10" speed="6.00" angle="39.81" x="14.21" y="5.73"/>
        <vehicle id="veh2" eclass="HBEFA3/PC_G_EU4" CO2="2624.72" CO="164.78" HC="0.81" NOx="1.20" PMx="0.07" fuel="1.13" electricity="0.00" noise="55.94" route="BottomStartTopEnd" type="CarNoGap" waiting="0.00" lane="Right01_0" pos="5.10" speed="0.00" angle="45.00" x="9.27" y="-2.05"/>
    </timestep>
    <timestep time="5.00">
        <vehicle id="veh0" eclass="HBEFA3/PC_G_EU4" CO2="2112.22" CO="19.25" HC="0.13" NOx="0.70" PMx="0.01" fuel="0.91" electricity="0.00" noise="61.77" route="BottomStartTopEnd" type="CarNoGap" waiting="0.00" lane="Right01_1" pos="43.10" speed="10.00" angle="45.00" x="34.36" y="26.59"/>
        <vehicle id="veh1" eclass="HBEFA3/PC_G_EU4" CO2="9130.82" CO="173.49" HC="1.01" NOx="4.03" PMx="0.20" fuel="3.92" electricity="0.00" noise="72.88" route="BottomStartTopEnd" type="CarNoGap" waiting="0.00" lane="Right01_1" pos="23.10" speed="9.00" angle="42.95" x="20.22" y="12.45"/>
        <vehicle id="veh2" eclass="HBEFA3/PC_G_EU4" CO2="4652.12" CO="157.25" HC="0.83" NOx="2.08" PMx="0.10" fuel="2.00" electricity="0.00" noise="70.30" route="BottomStartTopEnd" type="CarNoGap" waiting="0.00" lane="Right01_0" pos="8.10" speed="3.00" angle="37.87" x="10.68" y="0.77"/>
    </timestep>
    <timestep time="6.00">
        <vehicle id="veh0" eclass="HBEFA3/PC_G_EU4" CO2="2112.22" CO="19.25" HC="0.13" NOx="0.70" PMx="0.01" fuel="0.91" electricity="0.00" noise="61.77" route="BottomStartTopEnd" type="CarNoGap" waiting="0.00" lane="Right01_1" pos="53.10" speed="10.00" angle="45.00" x="41.43" y="33.66"/>
        <vehicle id="veh1" eclass="HBEFA3/PC_G_EU4" CO2="11582.12" CO="197.25" HC="1.18" NOx="5.11" PMx="0.26" fuel="4.98" electricity="0.00" noise="74.27" route="BottomStartTopEnd" type="CarNoGap" waiting="0.00" lane="Right01_1" pos="35.10" speed="12.00" angle="45.00" x="28.70" y="20.94"/>
        <vehicle id="veh2" eclass="HBEFA3/PC_G_EU4" CO2="6820.82" CO="160.15" HC="0.89" NOx="3.02" PMx="0.15" fuel="2.93" electricity="0.00" noise="71.55" route="BottomStartTopEnd" type="CarNoGap" waiting="0.00" lane="Right01_1" pos="14.10" speed="6.00" angle="39.81" x="14.21" y="5.73"/>
        <vehicle id="veh3" eclass="HBEFA3/PC_G_EU4" CO2="2624.72" CO="164.78" HC="0.81" NOx="1.20" PMx="0.07" fuel="1.13" electricity="0.00" noise="55.94" route="BottomStartTopEnd" type="CarNoGap" waiting="0.00" lane="Right01_0" pos="5.10" speed="0.00" angle="45.00" x="9.27" y="-2.05"/>
    </timestep>
    <timestep time="7.00">
        <vehicle id="veh0" eclass="HBEFA3/PC_G_EU4" CO2="2112.22" CO="19.25" HC="0.13" NOx="0.70" PMx="0.01" fuel="0.91" electricity="0.00" noise="61.77" route="BottomStartTopEnd" type="CarNoGap" waiting="0.00" lane="Right01_1" pos="63.10" speed="10.00" angle="45.00" x="48.50" y="40.73"/>
        <vehicle id="veh1" eclass="HBEFA3/PC_G_EU4" CO2="5776.72" CO="70.27" HC="0.46" NOx="2.35" PMx="0.10" fuel="2.48" electricity="0.00" noise="67.02" route="BottomStartTopEnd" type="CarNoGap" waiting="0.00" lane="Right01_1" pos="48.13" speed="13.03" angle="45.00" x="37.92" y="30.15"/>
        <vehicle id="veh2" eclass="HBEFA3/PC_G_EU4" CO2="9130.82" CO="173.49" HC="1.01" NOx="4.03" PMx="0.20" fuel="3.92" electricity="0.00" noise="72.88" route="BottomStartTopEnd" type="CarNoGap" waiting="0.00" lane="Right01_1" pos="23.10" speed="9.00" angle="42.95" x="20.22" y="12.45"/>
        <vehicle id="veh3" eclass="HBEFA3/PC_G_EU4" CO2="4652.12" CO="157.25" HC="0.83" NOx="2.08" PMx="0.10" fuel="2.00" electricity="0.00" noise="70.30" route="BottomStartTopEnd" type="CarNoGap" waiting="0.00" lane="Right01_0" pos="8.10" speed="3.00" angle="37.87" x="10.68" y="0.77"/>
    </timestep>
    <timestep time="8.00">
        <vehicle id="veh0" eclass="HBEFA3/PC_G_EU4" CO2="2112.22" CO="19.25" HC="0.13" NOx="0.70" PMx="0.01" fuel="0.91" electricity="0.00" noise="61.77" route="BottomStartTopEnd" type="CarNoGap" waiting="0.00" lane="Right01_1" pos="73.10" speed="10.00" angle="45.00" x="55.57" y="47.81"/>
        <vehicle id="veh1" eclass="HBEFA3/PC_G_EU4" CO2="2267.09" CO="0.00" HC="0.04" NOx="0.69" PMx="0.01" fuel="0.97" electricity="0.00" noise="63.96" route="BottomStartTopEnd" type="CarNoGap" waiting="0.00" lane="Right01_1" pos="61.17" speed="13.03" angle="45.00" x="47.14" y="39.37"/>
        <vehicle id="veh2" eclass="HBEFA3/PC_G_EU4" CO2="11582.12" CO="197.25" HC="1.18" NOx="5.11" PMx="0.26" fuel="4.98" electricity="0.00" noise="74.27" route="BottomStartTopEnd" type="CarNoGap" waiting="0.00" lane="Right01_1" pos="35.10" speed="12.00" angle="45.00" x="28.70" y="20.94"/>
        <vehicle id="veh3" eclass="HBEFA3/PC_G_EU4" CO2="6820.82" CO="160.15" HC="0.89" NOx="3.02" PMx="0.15" fuel="2.93" electricity="0.00" noise="71.55" route="BottomStartTopEnd" type="CarNoGap" waiting="0.00" lane="Right01_1" pos="14.10" speed="6.00" angle="39.81" x="14.21" y="5.73"/>
        <vehicle id="veh4" eclass="HBEFA3/PC_G_EU4" CO2="2624.72" CO="164.78" HC="0.81" NOx="1.20" PMx="0.07" fuel="1.13" electricity="0.00" noise="55.94" route="BottomStartTopEnd" type="CarNoGap" waiting="0.00" lane="Right01_0" pos="5.10" speed="0.00" angle="45.00" x="9.27" y="-2.05"/>
    </timestep>
    <timestep time="9.00">
        <vehicle id="veh0" eclass="HBEFA3/PC_G_EU4" CO2="2112.22" CO="19.25" HC="0.13" NOx="0.70" PMx="0.01" fuel="0.91" electricity="0.00" noise="61.77" route="BottomStartTopEnd" type="CarNoGap" waiting="0.00" lane="Right01_1" pos="83.10" speed="10.00" angle="45.00" x="62.65" y="54.88"/>
        <vehicle id="veh1" eclass="HBEFA3/PC_G_EU4" CO2="2267.09" CO="0.00" HC="0.04" NOx="0.69" PMx="0.01" fuel="0.97" electricity="0.00" noise="63.96" route="BottomStartTopEnd" type="CarNoGap" waiting="0.00" lane="Right01_1" pos="74.20" speed="13.03" angle="45.00" x="56.35" y="48.58"/>
        <vehicle id="veh2" eclass="HBEFA3/PC_G_EU4" CO2="9792.19" CO="146.57" HC="0.90" NOx="4.22" PMx="0.21" fuel="4.21" electricity="0.00" noise="71.27" route="BottomStartTopEnd" type="CarNoGap" waiting="0.00" lane="Right01_1" pos="49.13" speed="14.03" angle="45.00" x="38.63" y="30.86"/>
        <vehicle id="veh3" eclass="HBEFA3/PC_G_EU4" CO2="9130.82" CO="173.49" HC="1.01" NOx="4.03" PMx="0.20" fuel="3.92" electricity="0.00" noise="72.88" route="BottomStartTopEnd" type="CarNoGap" waiting="0.00" lane="Right01_1" pos="23.10" speed="9.00" angle="42.95" x="20.22" y="12.45"/>
        <vehicle id="veh4" eclass="HBEFA3/PC_G_EU4" CO2="4652.12" CO="157.25" HC="0.83" NOx="2.08" PMx="0.10" fuel="2.00" electricity="0.00" noise="70.30" route="BottomStartTopEnd" type="CarNoGap" waiting="0.00" lane="Right01_0" pos="8.10" speed="3.00" angle="37.87" x="10.68" y="0.77"/>
    </timestep>
    <timestep time="10.00">
        <vehicle id="veh0" eclass="HBEFA3/PC_G_EU4" CO2="2112.22" CO="19.25" HC="0.13" NOx="0.70" PMx="0.01" fuel="0.91" electricity="0.00" noise="61.77" route="BottomStartTopEnd" type="CarNoGap" waiting="0.00" lane="Right01_1" pos="93.10" speed="10.00" angle="45.00" x="69.72" y="61.95"/>
        <vehicle id="veh1" eclass="HBEFA3/PC_G_EU4" CO2="0.00" CO="0.00" HC="0.00" NOx="0.00" PMx="0.00" fuel="0.00" electricity="0.00" noise="63.51" route="BottomStartTopEnd" type="CarNoGap" waiting="0.00" lane="Right01_1" pos="87.08" speed="12.89" angle="45.00" x="65.46" y="57.69"/>
        <vehicle id="veh2" eclass="HBEFA3/PC_G_EU4" CO2="2349.93" CO="0.00" HC="0.02" NOx="0.71" PMx="0.01" fuel="1.01" electricity="0.00" noise="64.67" route="BottomStartTopEnd" type="CarNoGap" waiting="0.00" lane="Right01_1" pos="63.17" speed="14.03" angle="45.00" x="48.55" y="40.78"/>
        <vehicle id="veh3" eclass="HBEFA3/PC_G_EU4" CO2="11582.12" CO="197.25" HC="1.18" NOx="5.11" PMx="0.26" fuel="4.98" electricity="0.00" noise="74.27" route="BottomStartTopEnd" type="CarNoGap" waiting="0.00" lane="Right01_1" pos="35.10" speed="12.00" angle="45.00" x="28.70" y="20.94"/>
        <vehicle id="veh4" eclass="HBEFA3/PC_G_EU4" CO2="6820.82" CO="160.15" HC="0.89" NOx="3.02" PMx="0.15" fuel="2.93" electricity="0.00" noise="71.55" route="BottomStartTopEnd" type="CarNoGap" waiting="0.00" lane="Right01_1" pos="14.10" speed="6.00" angle="39.81" x="14.21" y="5.73"/>
        <vehicle id="veh5" eclass="HBEFA3/PC_G_EU4" CO2="2624.72" CO="164.78" HC="0.81" NOx="1.20" PMx="0.07" fuel="1.13" electricity="0.00" noise="55.94" route="BottomStartTopEnd" type="CarNoGap" waiting="0.00" lane="Right01_0" pos="5.10" speed="0.00" angle="45.00" x="9.27" y="-2.05"/>
    </timestep>
    <timestep time="11.00">
        <vehicle id="veh0" eclass="HBEFA3/PC_G_EU4" CO2="2112.22" CO="19.25" HC="0.13" NOx="0.70" PMx="0.01" fuel="0.91" electricity="0.00" noise="61.77" route="BottomStartTopEnd" type="CarNoGap" waiting="0.00" lane="Right01_1" pos="103.10" speed="10.00" angle="45.00" x="76.79" y="69.02"/>
        <vehicle id="veh1" eclass="HBEFA3/PC_G_EU4" CO2="0.00" CO="0.00" HC="0.00" NOx="0.00" PMx="0.00" fuel="0.00" electricity="0.00" noise="59.00" route="BottomStartTopEnd" type="CarNoGap" waiting="0.00" lane="Right01_1" pos="97.99" speed="10.91" angle="45.00" x="73.17" y="65.41"/>
        <vehicle id="veh2" eclass="HBEFA3/PC_G_EU4" CO2="2349.93" CO="0.00" HC="0.02" NOx="0.71" PMx="0.01" fuel="1.01" electricity="0.00" noise="64.67" route="BottomStartTopEnd" type="CarNoGap" waiting="0.00" lane="Right01_1" pos="77.20" speed="14.03" angle="45.00" x="58.48" y="50.71"/>
        <vehicle id="veh3" eclass="HBEFA3/PC_G_EU4" CO2="14174.72" CO="231.44" HC="1.40" NOx="6.26" PMx="0.32" fuel="6.09" electricity="0.00" noise="75.69" route="BottomStartTopEnd" type="CarNoGap" waiting="0.00" lane="Right01_1" pos="50.10" speed="15.00" angle="45.00" x="39.31" y="31.54"/>
        <vehicle id="veh4" eclass="HBEFA3/PC_G_EU4" CO2="9130.82" CO="173.49" HC="1.01" NOx="4.03" PMx="0.20" fuel="3.92" electricity="0.00" noise="72.88" route="BottomStartTopEnd" type="CarNoGap" waiting="0.00" lane="Right01_1" pos="23.10" speed="9.00" angle="42.95" x="20.22" y="12.45"/>
        <vehicle id="veh5" eclass="HBEFA3/PC_G_EU4" CO2="4652.12" CO="157.25" HC="0.83" NOx="2.08" PMx="0.10" fuel="2.00" electricity="0.00" noise="70.30" route="BottomStartTopEnd" type="CarNoGap" waiting="0.00" lane="Right01_0" pos="8.10" speed="3.00" angle="37.87" x="10.68" y="0.77"/>
    </timestep>
    <timestep time="12.00">
        <vehicle id="veh0" eclass="HBEFA3/PC_G_EU4" CO2="2112.22" CO="19.25" HC="0.13" NOx="0.70" PMx="0.01" fuel="0.91" electricity="0.00" noise="61.77" route="BottomStartTopEnd" type="CarNoGap" waiting="0.00" lane="Right01_1" pos="113.10" speed="10.00" angle="45.00" x="83.86" y="76.09"/>
        <vehicle id="veh1" eclass="HBEFA3/PC_G_EU4" CO2="0.00" CO="0.00" HC="0.00" NOx="0.00" PMx="0.00" fuel="0.00" electricity="0.00" noise="59.57" route="BottomStartTopEnd" type="CarNoGap" waiting="0.00" lane="Right01_1" pos="108.00" speed="10.01" angle="45.00" x="80.25" y="72.48"/>
        <vehicle id="veh2" eclass="HBEFA3/PC_G_EU4" CO2="2349.93" CO="0.00" HC="0.02" NOx="0.71" PMx="0.01" fuel="1.01" electricity="0.00" noise="64.67" route="BottomStartTopEnd" type="CarNoGap" waiting="0.00" lane="Right01_1" pos="91.24" speed="14.03" angle="45.00" x="68.40" y="60.63"/>
        <vehicle id="veh3" eclass="HBEFA3/PC_G_EU4" CO2="2598.71" CO="0.00" HC="0.03" NOx="0.80" PMx="0.02" fuel="1.12" electricity="0.00" noise="65.45" route="BottomStartTopEnd" type="CarNoGap" waiting="0.00" lane="Right01_1" pos="65.14" speed="15.04" angle="45.00" x="49.94" y="42.18"/>
        <vehicle id="veh4" eclass="HBEFA3/PC_G_EU4" CO2="11582.12" CO="197.25" HC="1.18" NOx="5.11" PMx="0.26" fuel="4.98" electricity="0.00" noise="74.27" route="BottomStartTopEnd" type="CarNoGap" waiting="0.00" lane="Right01_1" pos="35.10" speed="12.00" angle="45.00" x="28.70" y="20.94"/>
        <vehicle id="veh5" eclass="HBEFA3/PC_G_EU4" CO2="6820.82" CO="160.15" HC="0.89" NOx="3.02" PMx="0.15" fuel="2.93" electricity="0.00" noise="71.55" route="BottomStartTopEnd" type="CarNoGap" waiting="0.00" lane="Right01_1" pos="14.10" speed="6.00" angle="39.81" x="14.21" y="5.73"/>
        <vehicle id="veh6" eclass="HBEFA3/PC_G_EU4" CO2="2624.72" CO="164.78" HC="0.81" NOx="1.20" PMx="0.07" fuel="1.13" electricity="0.00" noise="55.94" route="BottomStartTopEnd" type="CarNoGap" waiting="0.00" lane="Right01_0" pos="5.10" speed="0.00" angle="45.00" x="9.27" y="-2.05"/>
    </timestep>
    <timestep time="13.00">
        <vehicle id="veh0" eclass="HBEFA3/PC_G_EU4" CO2="2112.22" CO="19.25" HC="0.13" NOx="0.70" PMx="0.01" fuel="0.91" electricity="0.00" noise="61.77" route="BottomStartTopEnd" type="CarNoGap" waiting="0.00" lane="Right01_1" pos="123.10" speed="10.00" angle="45.00" x="90.93" y="83.16"/>
        <vehicle id="veh1" eclass="HBEFA3/PC_G_EU4" CO2="0.00" CO="0.00" HC="0.00" NOx="0.00" PMx="0.00" fuel="0.00" electricity="0.00" noise="61.75" route="BottomStartTopEnd" type="CarNoGap" waiting="0.00" lane="Right01_1" pos="118.00" speed="10.00" angle="45.00" x="87.32" y="79.55"/>
        <vehicle id="veh2" eclass="HBEFA3/PC_G_EU4" CO2="2349.93" CO="0.00" HC="0.02" NOx="0.71" PMx="0.01" fuel="1.01" electricity="0.00" noise="64.67" route="BottomStartTopEnd" type="CarNoGap" waiting="0.00" lane="Right01_1" pos="105.27" speed="14.03" angle="45.00" x="78.32" y="70.55"/>
        <vehicle id="veh3" eclass="HBEFA3/PC_G_EU4" CO2="2448.78" CO="0.00" HC="0.01" NOx="0.73" PMx="0.01" fuel="1.05" electricity="0.00" noise="65.36" route="BottomStartTopEnd" type="CarNoGap" waiting="0.00" lane="Right01_1" pos="80.18" speed="15.04" angle="45.00" x="60.58" y="52.81"/>
        <vehicle id="veh4" eclass="HBEFA3/PC_G_EU4" CO2="10996.46" CO="169.75" HC="1.04" NOx="4.78" PMx="0.24" fuel="4.73" electricity="0.00" noise="72.52" route="BottomStartTopEnd" type="CarNoGap" waiting="0.00" lane="Right01_1" pos="49.41" speed="14.31" angle="45.00" x="38.82" y="31.05"/>
        <vehicle id="veh5" eclass="HBEFA3/PC_G_EU4" CO2="9130.82" CO="173.49" HC="1.01" NOx="4.03" PMx="0.20" fuel="3.92" electricity="0.00" noise="72.88" route="BottomStartTopEnd" type="CarNoGap" waiting="0.00" lane="Right01_1" pos="23.10" speed="9.00" angle="42.95" x="20.22" y="12.45"/>
        <vehicle id="veh6" eclass="HBEFA3/PC_G_EU4" CO2="4652.12" CO="157.25" HC="0.83" NOx="2.08" PMx="0.10" fuel="2.00" electricity="0.00" noise="70.30" route="BottomStartTopEnd" type="CarNoGap" waiting="0.00" lane="Right01_0" pos="8.10" speed="3.00" angle="37.87" x="10.68" y="0.77"/>
    </timestep>
    <timestep time="14.00">
        <vehicle id="veh0" eclass="HBEFA3/PC_G_EU4" CO2="2112.22" CO="19.25" HC="0.13" NOx="0.70" PMx="0.01" fuel="0.91" electricity="0.00" noise="61.77" route="BottomStartTopEnd" type="CarNoGap" waiting="0.00" lane="Right01_1" pos="133.10" speed="10.00" angle="45.00" x="98.00" y="90.23"/>
        <vehicle id="veh1" eclass="HBEFA3/PC_G_EU4" CO2="0.00" CO="0.00" HC="0.00" NOx="0.00" PMx="0.00" fuel="0.00" electricity="0.00" noise="61.77" route="BottomStartTopEnd" type="CarNoGap" waiting="0.00" lane="Right01_1" pos="128.00" speed="10.00" angle="45.00" x="94.39" y="86.63"/>
        <vehicle id="veh2" eclass="HBEFA3/PC_G_EU4" CO2="2349.93" CO="0.00" HC="0.02" NOx="0.71" PMx="0.01" fuel="1.01" electricity="0.00" noise="64.67" route="BottomStartTopEnd" type="CarNoGap" waiting="0.00" lane="Right01_1" pos="119.31" speed="14.03" angle="45.00" x="88.25" y="80.48"/>
        <vehicle id="veh3" eclass="HBEFA3/PC_G_EU4" CO2="2448.78" CO="0.00" HC="0.01" NOx="0.73" PMx="0.01" fuel="1.05" electricity="0.00" noise="65.36" route="BottomStartTopEnd" type="CarNoGap" waiting="0.00" lane="Right01_1" pos="95.21" speed="15.04" angle="45.00" x="71.21" y="63.44"/>
        <vehicle id="veh4" eclass="HBEFA3/PC_G_EU4" CO2="2375.59" CO="0.00" HC="0.02" NOx="0.71" PMx="0.01" fuel="1.02" electricity="0.00" noise="64.86" route="BottomStartTopEnd" type="CarNoGap" waiting="0.00" lane="Right01_1" pos="63.72" speed="14.31" angle="45.00" x="48.94" y="41.17"/>
        <vehicle id="veh5" eclass="HBEFA3/PC_G_EU4" CO2="9825.23" CO="164.66" HC="0.99" NOx="4.30" PMx="0.21" fuel="4.22" electricity="0.00" noise="72.12" route="BottomStartTopEnd" type="CarNoGap" waiting="0.00" lane="Right01_1" pos="34.64" speed="11.54" angle="45.00" x="28.38" y="20.61"/>
        <vehicle id="veh6" eclass="HBEFA3/PC_G_EU4" CO2="6820.82" CO="160.15" HC="0.89" NOx="3.02" PMx="0.15" fuel="2.93" electricity="0.00" noise="71.55" route="BottomStartTopEnd" type="CarNoGap" waiting="0.00" lane="Right01_1" pos="14.10" speed="6.00" angle="39.81" x="14.21" y="5.73"/>
        <vehicle id="veh7" eclass="HBEFA3/PC_G_EU4" CO2="2624.72" CO="164.78" HC="0.81" NOx="1.20" PMx="0.07" fuel="1.13" electricity="0.00" noise="55.94" route="BottomStartTopEnd" type="CarNoGap" waiting="0.00" lane="Right01_0" pos="5.10" speed="0.00" angle="45.00" x="9.27" y="-2.05"/>
    </timestep>
    <timestep time="15.00">
        <vehicle id="veh0" eclass="HBEFA3/PC_G_EU4" CO2="2112.22" CO="19.25" HC="0.13" NOx="0.70" PMx="0.01" fuel="0.91" electricity="0.00" noise="61.77" route="BottomStartTopEnd" type="CarNoGap" waiting="0.00" lane="Right12_1" pos="1.58" speed="10.00" angle="45.00" x="105.00" y="97.23"/>
        <vehicle id="veh1" eclass="HBEFA3/PC_G_EU4" CO2="0.00" CO="0.00" HC="0.00" NOx="0.00" PMx="0.00" fuel="0.00" electricity="0.00" noise="61.77" route="BottomStartTopEnd" type="CarNoGap" waiting="0.00" lane="Right01_1" pos="138.00" speed="10.00" angle="45.00" x="101.47" y="93.70"/>
        <vehicle id="veh2" eclass="HBEFA3/PC_G_EU4" CO2="0.00" CO="0.00" HC="0.00" NOx="0.00" PMx="0.00" fuel="0.00" electricity="0.00" noise="61.54" route="BottomStartTopEnd" type="CarNoGap" waiting="0.00" lane="Right01_1" pos="132.09" speed="12.78" angle="45.00" x="97.29" y="89.52"/>
        <vehicle id="veh3" eclass="HBEFA3/PC_G_EU4" CO2="2448.78" CO="0.00" HC="0.01" NOx="0.73" PMx="0.01" fuel="1.05" electricity="0.00" noise="65.36" route="BottomStartTopEnd" type="CarNoGap" waiting="0.00" lane="Right01_1" pos="110.25" speed="15.04" angle="45.00" x="81.85" y="74.08"/>
        <vehicle id="veh4" eclass="HBEFA3/PC_G_EU4" CO2="2375.59" CO="0.00" HC="0.02" NOx="0.71" PMx="0.01" fuel="1.02" electricity="0.00" noise="64.86" route="BottomStartTopEnd" type="CarNoGap" waiting="0.00" lane="Right01_1" pos="78.03" speed="14.31" angle="45.00" x="59.06" y="51.29"/>
        <vehicle id="veh5" eclass="HBEFA3/PC_G_EU4" CO2="2172.97" CO="7.11" HC="0.08" NOx="0.68" PMx="0.01" fuel="0.93" electricity="0.00" noise="62.90" route="BottomStartTopEnd" type="CarNoGap" waiting="0.00" lane="Right01_1" pos="46.19" speed="11.54" angle="45.00" x="36.54" y="28.77"/>
        <vehicle id="veh6" eclass="HBEFA3/PC_G_EU4" CO2="9130.82" CO="173.49" HC="1.01" NOx="4.03" PMx="0.20" fuel="3.92" electricity="0.00" noise="72.88" route="BottomStartTopEnd" type="CarNoGap" waiting="0.00" lane="Right01_1" pos="23.10" speed="9.00" angle="42.95" x="20.22" y="12.45"/>
        <vehicle id="veh7" eclass="HBEFA3/PC_G_EU4" CO2="4652.12" CO="157.25" HC="0.83" NOx="2.08" PMx="0.10" fuel="2.00" electricity="0.00" noise="70.30" route="BottomStartTopEnd" type="CarNoGap" waiting="0.00" lane="Right01_0" pos="8.10" speed="3.00" angle="37.87" x="10.68" y="0.77"/>
    </timestep>
    <timestep time="16.00">
        <vehicle id="veh0" eclass="HBEFA3/PC_G_EU4" CO2="2112.22" CO="19.25" HC="0.13" NOx="0.70" PMx="0.01" fuel="0.91" electricity="0.00" noise="61.77" route="BottomStartTopEnd" type="CarNoGap" waiting="0.00" lane="Right12_1" pos="11.58" speed="10.00" angle="45.00" x="112.07" y="104.30"/>
        <vehicle id="veh1" eclass="HBEFA3/PC_G_EU4" CO2="0.00" CO="0.00" HC="0.00" NOx="0.00" PMx="0.00" fuel="0.00" electricity="0.00" noise="61.77" route="BottomStartTopEnd" type="CarNoGap" waiting="0.00" lane="Right12_1" pos="6.48" speed="10.00" angle="45.00" x="108.47" y="100.70"/>
        <vehicle id="veh2" eclass="HBEFA3/PC_G_EU4" CO2="0.00" CO="0.00" HC="0.00" NOx="0.00" PMx="0.00" fuel="0.00" electricity="0.00" noise="58.89" route="BottomStartTopEnd" type="CarNoGap" waiting="0.00" lane="Right12_1" pos="1.37" speed="10.80" angle="45.00" x="104.85" y="97.08"/>
        <vehicle id="veh3" eclass="HBEFA3/PC_G_EU4" CO2="2448.78" CO="0.00" HC="0.01" NOx="0.73" PMx="0.01" fuel="1.05" electricity="0.00" noise="65.36" route="BottomStartTopEnd" type="CarNoGap" waiting="0.00" lane="Right01_1" pos="125.29" speed="15.04" angle="45.00" x="92.48" y="84.71"/>
        <vehicle id="veh4" eclass="HBEFA3/PC_G_EU4" CO2="2375.59" CO="0.00" HC="0.02" NOx="0.71" PMx="0.01" fuel="1.02" electricity="0.00" noise="64.86" route="BottomStartTopEnd" type="CarNoGap" waiting="0.00" lane="Right01_1" pos="92.34" speed="14.31" angle="45.00" x="69.18" y="61.41"/>
        <vehicle id="veh5" eclass="HBEFA3/PC_G_EU4" CO2="2172.97" CO="7.11" HC="0.08" NOx="0.68" PMx="0.01" fuel="0.93" electricity="0.00" noise="62.90" route="BottomStartTopEnd" type="CarNoGap" waiting="0.00" lane="Right01_1" pos="57.73" speed="11.54" angle="45.00" x="44.71" y="36.94"/>
        <vehicle id="veh6" eclass="HBEFA3/PC_G_EU4" CO2="11582.12" CO="197.25" HC="1.18" NOx="5.11" PMx="0.26" fuel="4.98" electricity="0.00" noise="74.27" route="BottomStartTopEnd" type="CarNoGap" waiting="0.00" lane="Right01_1" pos="35.10" speed="12.00" angle="45.00" x="28.70" y="20.94"/>
        <vehicle id="veh7" eclass="HBEFA3/PC_G_EU4" CO2="6820.82" CO="160.15" HC="0.89" NOx="3.02" PMx="0.15" fuel="2.93" electricity="0.00" noise="71.55" route="BottomStartTopEnd" type="CarNoGap" waiting="0.00" lane="Right01_1" pos="14.10" speed="6.00" angle="39.81" x="14.21" y="5.73"/>
        <vehicle id="veh8" eclass="HBEFA3/PC_G_EU4" CO2="2624.72" CO="164.78" HC="0.81" NOx="1.20" PMx="0.07" fuel="1.13" electricity="0.00" noise="55.94" route="BottomStartTopEnd" type="CarNoGap" waiting="0.00" lane="Right01_0" pos="5.10" speed="0.00" angle="45.00" x="9.27" y="-2.05"/>
    </timestep>
    <timestep time="17.00">
        <vehicle id="veh0" eclass="HBEFA3/PC_G_EU4" CO2="2112.22" CO="19.25" HC="0.13" NOx="0.70" PMx="0.01" fuel="0.91" electricity="0.00" noise="61.77" route="BottomStartTopEnd" type="CarNoGap" waiting="0.00" lane="Right12_1" pos="21.58" speed="10.00" angle="45.00" x="119.14" y="111.37"/>
        <vehicle id="veh1" eclass="HBEFA3/PC_G_EU4" CO2="0.00" CO="0.00" HC="0.00" NOx="0.00" PMx="0.00" fuel="0.00" electricity="0.00" noise="61.77" route="BottomStartTopEnd" type="CarNoGap" waiting="0.00" lane="Right12_1" pos="16.48" speed="10.00" angle="45.00" x="115.54" y="107.77"/>
        <vehicle id="veh2" eclass="HBEFA3/PC_G_EU4" CO2="0.00" CO="0.00" HC="0.00" NOx="0.00" PMx="0.00" fuel="0.00" electricity="0.00" noise="59.77" route="BottomStartTopEnd" type="CarNoGap" waiting="0.00" lane="Right12_1" pos="11.38" speed="10.01" angle="45.00" x="111.93" y="104.16"/>
        <vehicle id="veh3" eclass="HBEFA3/PC_G_EU4" CO2="2448.78" CO="0.00" HC="0.01" NOx="0.73" PMx="0.01" fuel="1.05" electricity="0.00" noise="65.36" route="BottomStartTopEnd" type="CarNoGap" waiting="0.00" lane="Right01_1" pos="140.33" speed="15.04" angle="45.00" x="103.11" y="95.34"/>
        <vehicle id="veh4" eclass="HBEFA3/PC_G_EU4" CO2="2375.59" CO="0.00" HC="0.02" NOx="0.71" PMx="0.01" fuel="1.02" electricity="0.00" noise="64.86" route="BottomStartTopEnd" type="CarNoGap" waiting="0.00" lane="Right01_1" pos="106.65" speed="14.31" angle="45.00" x="79.30" y="71.53"/>
        <vehicle id="veh5" eclass="HBEFA3/PC_G_EU4" CO2="2172.97" CO="7.11" HC="0.08" NOx="0.68" PMx="0.01" fuel="0.93" electricity="0.00" noise="62.90" route="BottomStartTopEnd" type="CarNoGap" waiting="0.00" lane="Right01_1" pos="69.27" speed="11.54" angle="45.00" x="52.87" y="45.10"/>
        <vehicle id="veh6" eclass="HBEFA3/PC_G_EU4" CO2="11962.39" CO="188.43" HC="1.15" NOx="5.23" PMx="0.26" fuel="5.14" electricity="0.00" noise="73.50" route="BottomStartTopEnd" type="CarNoGap" waiting="0.00" lane="Right01_1" pos="49.63" speed="14.53" angle="45.00" x="38.98" y="31.21"/>
        <vehicle id="veh7" eclass="HBEFA3/PC_G_EU4" CO2="9130.82" CO="173.49" HC="1.01" NOx="4.03" PMx="0.20" fuel="3.92" electricity="0.00" noise="72.88" route="BottomStartTopEnd" type="CarNoGap" waiting="0.00" lane="Right01_1" pos="23.10" speed="9.00" angle="42.95" x="20.22" y="12.45"/>
        <vehicle id="veh8" eclass="HBEFA3/PC_G_EU4" CO2="4652.12" CO="157.25" HC="0.83" NOx="2.08" PMx="0.10" fuel="2.00" electricity="0.00" noise="70.30" route="BottomStartTopEnd" type="CarNoGap" waiting="0.00" lane="Right01_0" pos="8.10" speed="3.00" angle="37.87" x="10.68" y="0.77"/>
    </timestep>
    <timestep time="18.00">
        <vehicle id="veh0" eclass="HBEFA3/PC_G_EU4" CO2="2112.22" CO="19.25" HC="0.13" NOx="0.70" PMx="0.01" fuel="0.91" electricity="0.00" noise="61.77" route="BottomStartTopEnd" type="CarNoGap" waiting="0.00" lane="Right12_1" pos="31.58" speed="10.00" angle="45.00" x="126.22" y="118.45"/>
        <vehicle id="veh1" eclass="HBEFA3/PC_G_EU4" CO2="0.00" CO="0.00" HC="0.00" NOx="0.00" PMx="0.00" fuel="0.00" electricity="0.00" noise="61.77" route="BottomStartTopEnd" type="CarNoGap" waiting="0.00" lane="Right12_1" pos="26.48" speed="10.00" angle="45.00" x="122.61" y="114.84"/>
        <vehicle id="veh2" eclass="HBEFA3/PC_G_EU4" CO2="0.00" CO="0.00" HC="0.00" NOx="0.00" PMx="0.00" fuel="0.00" electricity="0.00" noise="61.75" route="BottomStartTopEnd" type="CarNoGap" waiting="0.00" lane="Right12_1" pos="21.38" speed="10.00" angle="45.00" x="119.00" y="111.23"/>
        <vehicle id="veh3" eclass="HBEFA3/PC_G_EU4" CO2="0.00" CO="0.00" HC="0.00" NOx="0.00" PMx="0.00" fuel="0.00" electricity="0.00" noise="64.48" route="BottomStartTopEnd" type="CarNoGap" waiting="0.00" lane="Right12_1" pos="13.52" speed="14.71" angle="45.00" x="113.45" y="105.68"/>
        <vehicle id="veh4" eclass="HBEFA3/PC_G_EU4" CO2="2375.59" CO="0.00" HC="0.02" NOx="0.71" PMx="0.01" fuel="1.02" electricity="0.00" noise="64.86" route="BottomStartTopEnd" type="CarNoGap" waiting="0.00" lane="Right01_1" pos="120.97" speed="14.31" angle="45.00" x="89.42" y="81.65"/>
        <vehicle id="veh5" eclass="HBEFA3/PC_G_EU4" CO2="2172.97" CO="7.11" HC="0.08" NOx="0.68" PMx="0.01" fuel="0.93" electricity="0.00" noise="62.90" route="BottomStartTopEnd" type="CarNoGap" waiting="0.00" lane="Right01_1" pos="80.82" speed="11.54" angle="45.00" x="61.03" y="53.26"/>
        <vehicle id="veh6" eclass="HBEFA3/PC_G_EU4" CO2="2396.39" CO="0.00" HC="0.01" NOx="0.72" PMx="0.01" fuel="1.03" electricity="0.00" noise="65.01" route="BottomStartTopEnd" type="CarNoGap" waiting="0.00" lane="Right01_1" pos="64.15" speed="14.53" angle="45.00" x="49.25" y="41.48"/>